Gaussian '09 started on brahma at Wed Jun 12 14:21:26 IST 2019.
 Entering Gaussian System, Link 0=/usr/local/src/gaussian//g09/g09
 Initial command:
 /usr/local/src/gaussian//g09/l1.exe /home/vishal/Documents/Lakshay/train_data/gaussian13713/Gau-13746.inp -scrdir=/home/vishal/Documents/Lakshay/train_data/gaussian13713/
 Entering Link 1 = /usr/local/src/gaussian//g09/l1.exe PID=     13748.
  
 Copyright (c) 1988,1990,1992,1993,1995,1998,2003,2009,2010,
            Gaussian, Inc.  All Rights Reserved.
  
 This is part of the Gaussian(R) 09 program.  It is based on
 the Gaussian(R) 03 system (copyright 2003, Gaussian, Inc.),
 the Gaussian(R) 98 system (copyright 1998, Gaussian, Inc.),
 the Gaussian(R) 94 system (copyright 1995, Gaussian, Inc.),
 the Gaussian 92(TM) system (copyright 1992, Gaussian, Inc.),
 the Gaussian 90(TM) system (copyright 1990, Gaussian, Inc.),
 the Gaussian 88(TM) system (copyright 1988, Gaussian, Inc.),
 the Gaussian 86(TM) system (copyright 1986, Carnegie Mellon
 University), and the Gaussian 82(TM) system (copyright 1983,
 Carnegie Mellon University). Gaussian is a federally registered
 trademark of Gaussian, Inc.
  
 This software contains proprietary and confidential information,
 including trade secrets, belonging to Gaussian, Inc.
  
 This software is provided under written license and may be
 used, copied, transmitted, or stored only in accord with that
 written license.
  
 The following legend is applicable only to US Government
 contracts under FAR:
  
                    RESTRICTED RIGHTS LEGEND
  
 Use, reproduction and disclosure by the US Government is
 subject to restrictions as set forth in subparagraphs (a)
 and (c) of the Commercial Computer Software - Restricted
 Rights clause in FAR 52.227-19.
  
 Gaussian, Inc.
 340 Quinnipiac St., Bldg. 40, Wallingford CT 06492
  
  
 ---------------------------------------------------------------
 Warning -- This program may not be used in any manner that
 competes with the business of Gaussian, Inc. or will provide
 assistance to any competitor of Gaussian, Inc.  The licensee
 of this program is prohibited from giving any competitor of
 Gaussian, Inc. access to this program.  By using this program,
 the user acknowledges that Gaussian, Inc. is engaged in the
 business of creating and licensing software in the field of
 computational chemistry and represents and warrants to the
 licensee that it is not a competitor of Gaussian, Inc. and that
 it will not use this program in any manner prohibited above.
 ---------------------------------------------------------------
  

 Cite this work as:
 Gaussian 09, Revision B.01,
 M. J. Frisch, G. W. Trucks, H. B. Schlegel, G. E. Scuseria, 
 M. A. Robb, J. R. Cheeseman, G. Scalmani, V. Barone, B. Mennucci, 
 G. A. Petersson, H. Nakatsuji, M. Caricato, X. Li, H. P. Hratchian, 
 A. F. Izmaylov, J. Bloino, G. Zheng, J. L. Sonnenberg, M. Hada, 
 M. Ehara, K. Toyota, R. Fukuda, J. Hasegawa, M. Ishida, T. Nakajima, 
 Y. Honda, O. Kitao, H. Nakai, T. Vreven, J. A. Montgomery, Jr., 
 J. E. Peralta, F. Ogliaro, M. Bearpark, J. J. Heyd, E. Brothers, 
 K. N. Kudin, V. N. Staroverov, T. Keith, R. Kobayashi, J. Normand, 
 K. Raghavachari, A. Rendell, J. C. Burant, S. S. Iyengar, J. Tomasi, 
 M. Cossi, N. Rega, J. M. Millam, M. Klene, J. E. Knox, J. B. Cross, 
 V. Bakken, C. Adamo, J. Jaramillo, R. Gomperts, R. E. Stratmann, 
 O. Yazyev, A. J. Austin, R. Cammi, C. Pomelli, J. W. Ochterski, 
 R. L. Martin, K. Morokuma, V. G. Zakrzewski, G. A. Voth, 
 P. Salvador, J. J. Dannenberg, S. Dapprich, A. D. Daniels, 
 O. Farkas, J. B. Foresman, J. V. Ortiz, J. Cioslowski, 
 and D. J. Fox, Gaussian, Inc., Wallingford CT, 2010.
 
 ******************************************
 Gaussian 09:  EM64L-G09RevB.01 12-Aug-2010
                12-Jun-2019 
 ******************************************
 %NProcShared=4
 Will use up to    4 processors via shared memory.
 %mem=8GB
 %CHK=water.chk
 -----------------------
 #n B3LYP/aug-cc-pVTZ SP
 -----------------------
 1/38=1/1;
 2/12=2,17=6,18=5,40=1/2;
 3/5=16,6=1,7=10,11=2,16=1,25=1,30=1,74=-5/1,2,3;
 4//1;
 5/5=2,38=5/2;
 6/7=2,8=2,9=2,10=2,28=1/1;
 99/5=1,9=1/99;
 -------
 water_2
 -------
 Symbolic Z-matrix:
 Charge =  0 Multiplicity = 1
 O                     0.        0.        0. 
 H                     0.95783   0.        0. 
 H                    -0.23982   0.92733   0. 
 O                     0.42879   1.76458  -1.86959 
 H                     0.43189   1.73756  -0.91214 
 H                    -0.46104   1.50773  -2.11388 
 
                          Input orientation:                          
 ---------------------------------------------------------------------
 Center     Atomic      Atomic             Coordinates (Angstroms)
 Number     Number       Type             X           Y           Z
 ---------------------------------------------------------------------
      1          8           0        0.000000    0.000000    0.000000
      2          1           0        0.957830    0.000000    0.000000
      3          1           0       -0.239820    0.927330    0.000000
      4          8           0        0.428790    1.764580   -1.869590
      5          1           0        0.431890    1.737560   -0.912140
      6          1           0       -0.461040    1.507730   -2.113880
 ---------------------------------------------------------------------
                    Distance matrix (angstroms):
                    1          2          3          4          5
     1  O    0.000000
     2  H    0.957830   0.000000
     3  H    0.957838   1.514697   0.000000
     4  O    2.606333   2.624689   2.154854   0.000000
     5  H    2.009389   2.031681   1.392719   0.957836   0.000000
     6  H    2.637100   2.958873   2.203246   0.957835   1.514703
                    6
     6  H    0.000000
 Stoichiometry    H4O2
 Framework group  C1[X(H4O2)]
 Deg. of freedom    12
 Full point group                 C1      NOp   1
 Largest Abelian subgroup         C1      NOp   1
 Largest concise Abelian subgroup C1      NOp   1
                         Standard orientation:                         
 ---------------------------------------------------------------------
 Center     Atomic      Atomic             Coordinates (Angstroms)
 Number     Number       Type             X           Y           Z
 ---------------------------------------------------------------------
      1          8           0        1.294984   -0.082996   -0.056902
      2          1           0        1.195770    0.856036   -0.217568
      3          1           0        0.698464   -0.266315    0.669743
      4          8           0       -1.306037    0.082459   -0.039993
      5          1           0       -0.584479    0.265011    0.562900
      6          1           0       -1.221329   -0.850440   -0.239917
 ---------------------------------------------------------------------
 Rotational constants (GHZ):    186.1924755      8.5837381      8.4631039
 Standard basis: Aug-CC-pVTZ (5D, 7F)
 There are   184 symmetry adapted basis functions of A   symmetry.
 Integral buffers will be    131072 words long.
 Raffenetti 2 integral format.
 Two-electron integral symmetry is turned on.
   184 basis functions,   252 primitive gaussians,   210 cartesian basis functions
    10 alpha electrons       10 beta electrons
       nuclear repulsion energy        39.7212021647 Hartrees.
 NAtoms=    6 NActive=    6 NUniq=    6 SFac= 1.00D+00 NAtFMM=   50 NAOKFM=F Big=F
 One-electron integrals computed using PRISM.
 NBasis=   184 RedAO= T  NBF=   184
 NBsUse=   184 1.00D-06 NBFU=   184
 Harris functional with IExCor=  402 diagonalized for initial guess.
 ExpMin= 2.53D-02 ExpMax= 1.53D+04 ExpMxC= 5.22D+02 IAcc=3 IRadAn=         0 AccDes= 0.00D+00
 HarFok:  IExCor=  402 AccDes= 0.00D+00 IRadAn=         0 IDoV= 1
 ScaDFX=  1.000000  1.000000  1.000000  1.000000
 FoFCou: FMM=F IPFlag=           0 FMFlag=      100000 FMFlg1=           0
         NFxFlg=           0 DoJE=T BraDBF=F KetDBF=T FulRan=T
         Omega=  0.000000  0.000000  1.000000  0.000000  0.000000 ICntrl=     500 IOpCl=  0
         NMat0=    1 NMatS0=    1 NMatT0=    0 NMatD0=    1 NMtDS0=    0 NMtDT0=    0
         I1Cent=           4 NGrid=           0.
 Petite list used in FoFCou.
 Initial guess orbital symmetries:
       Occupied  (A) (A) (A) (A) (A) (A) (A) (A) (A) (A)
       Virtual   (A) (A) (A) (A) (A) (A) (A) (A) (A) (A) (A) (A)
                 (A) (A) (A) (A) (A) (A) (A) (A) (A) (A) (A) (A)
                 (A) (A) (A) (A) (A) (A) (A) (A) (A) (A) (A) (A)
                 (A) (A) (A) (A) (A) (A) (A) (A) (A) (A) (A) (A)
                 (A) (A) (A) (A) (A) (A) (A) (A) (A) (A) (A) (A)
                 (A) (A) (A) (A) (A) (A) (A) (A) (A) (A) (A) (A)
                 (A) (A) (A) (A) (A) (A) (A) (A) (A) (A) (A) (A)
                 (A) (A) (A) (A) (A) (A) (A) (A) (A) (A) (A) (A)
                 (A) (A) (A) (A) (A) (A) (A) (A) (A) (A) (A) (A)
                 (A) (A) (A) (A) (A) (A) (A) (A) (A) (A) (A) (A)
                 (A) (A) (A) (A) (A) (A) (A) (A) (A) (A) (A) (A)
                 (A) (A) (A) (A) (A) (A) (A) (A) (A) (A) (A) (A)
                 (A) (A) (A) (A) (A) (A) (A) (A) (A) (A) (A) (A)
                 (A) (A) (A) (A) (A) (A) (A) (A) (A) (A) (A) (A)
                 (A) (A) (A) (A) (A) (A)
 The electronic state of the initial guess is 1-A.
 Requested convergence on RMS density matrix=1.00D-08 within 128 cycles.
 Requested convergence on MAX density matrix=1.00D-06.
 Requested convergence on             energy=1.00D-06.
 No special actions if energy rises.
 Keep R1 ints in memory in canonical form, NReq=250335890.
 SCF Done:  E(RB3LYP) =  -152.910557543     A.U. after    9 cycles
             Convg  =    0.3918D-08             -V/T =  2.0049

 **********************************************************************

            Population analysis using the SCF density.

 **********************************************************************

 Orbital symmetries:
       Occupied  (A) (A) (A) (A) (A) (A) (A) (A) (A) (A)
       Virtual   (A) (A) (A) (A) (A) (A) (A) (A) (A) (A) (A) (A)
                 (A) (A) (A) (A) (A) (A) (A) (A) (A) (A) (A) (A)
                 (A) (A) (A) (A) (A) (A) (A) (A) (A) (A) (A) (A)
                 (A) (A) (A) (A) (A) (A) (A) (A) (A) (A) (A) (A)
                 (A) (A) (A) (A) (A) (A) (A) (A) (A) (A) (A) (A)
                 (A) (A) (A) (A) (A) (A) (A) (A) (A) (A) (A) (A)
                 (A) (A) (A) (A) (A) (A) (A) (A) (A) (A) (A) (A)
                 (A) (A) (A) (A) (A) (A) (A) (A) (A) (A) (A) (A)
                 (A) (A) (A) (A) (A) (A) (A) (A) (A) (A) (A) (A)
                 (A) (A) (A) (A) (A) (A) (A) (A) (A) (A) (A) (A)
                 (A) (A) (A) (A) (A) (A) (A) (A) (A) (A) (A) (A)
                 (A) (A) (A) (A) (A) (A) (A) (A) (A) (A) (A) (A)
                 (A) (A) (A) (A) (A) (A) (A) (A) (A) (A) (A) (A)
                 (A) (A) (A) (A) (A) (A) (A) (A) (A) (A) (A) (A)
                 (A) (A) (A) (A) (A) (A)
 The electronic state is 1-A.
 Alpha  occ. eigenvalues --  -19.15348 -19.14364  -1.05270  -1.02256  -0.57070
 Alpha  occ. eigenvalues --   -0.54655  -0.42751  -0.39711  -0.35100  -0.31412
 Alpha virt. eigenvalues --   -0.04162   0.00662   0.01893   0.02631   0.06216
 Alpha virt. eigenvalues --    0.09324   0.09510   0.10057   0.10578   0.12347
 Alpha virt. eigenvalues --    0.12763   0.13293   0.15600   0.17433   0.19296
 Alpha virt. eigenvalues --    0.20306   0.22388   0.23161   0.28216   0.29752
 Alpha virt. eigenvalues --    0.30520   0.31172   0.33293   0.34764   0.35979
 Alpha virt. eigenvalues --    0.37442   0.38727   0.42993   0.47546   0.48529
 Alpha virt. eigenvalues --    0.50658   0.53461   0.55630   0.56449   0.60361
 Alpha virt. eigenvalues --    0.62129   0.63751   0.67025   0.70771   0.72791
 Alpha virt. eigenvalues --    0.73284   0.75556   0.76546   0.79987   0.83008
 Alpha virt. eigenvalues --    0.83559   0.84894   0.86782   0.88005   0.88537
 Alpha virt. eigenvalues --    0.90637   0.92289   0.92770   0.93824   0.98033
 Alpha virt. eigenvalues --    1.01943   1.03660   1.06268   1.09063   1.10411
 Alpha virt. eigenvalues --    1.14439   1.17374   1.18843   1.19982   1.23683
 Alpha virt. eigenvalues --    1.27466   1.32035   1.34850   1.36580   1.41342
 Alpha virt. eigenvalues --    1.43212   1.47662   1.49806   1.55284   1.60919
 Alpha virt. eigenvalues --    1.63683   1.65977   1.75657   1.79676   1.86718
 Alpha virt. eigenvalues --    1.94450   1.98968   2.02820   2.06221   2.13453
 Alpha virt. eigenvalues --    2.15394   2.16680   2.19109   2.20098   2.24746
 Alpha virt. eigenvalues --    2.26342   2.29545   2.33782   2.39086   2.40536
 Alpha virt. eigenvalues --    2.41678   2.47525   2.48972   2.50497   2.52817
 Alpha virt. eigenvalues --    2.59597   2.61773   2.66449   2.67869   2.72568
 Alpha virt. eigenvalues --    2.82457   3.42568   3.43010   3.50447   3.61213
 Alpha virt. eigenvalues --    3.67862   3.76847   3.82073   3.86363   3.91408
 Alpha virt. eigenvalues --    3.93244   3.97406   3.98763   4.03156   4.08785
 Alpha virt. eigenvalues --    4.10604   4.16757   4.18163   4.20579   4.28021
 Alpha virt. eigenvalues --    4.31103   4.33302   4.39984   4.48217   4.57411
 Alpha virt. eigenvalues --    4.66660   4.70635   4.77942   4.83676   4.86628
 Alpha virt. eigenvalues --    4.88588   4.90559   4.99876   5.12731   5.13855
 Alpha virt. eigenvalues --    5.21524   5.26472   5.35238   5.58695   5.81371
 Alpha virt. eigenvalues --    5.87872   6.07289   6.09873   6.30826   6.38208
 Alpha virt. eigenvalues --    6.44889   6.63223   6.69756   6.77942   6.78745
 Alpha virt. eigenvalues --    6.80063   6.82559   6.86333   6.88575   6.90152
 Alpha virt. eigenvalues --    6.90735   6.92788   6.96788   7.03037   7.18012
 Alpha virt. eigenvalues --    7.31841   7.42290   7.49458   7.55971   7.57894
 Alpha virt. eigenvalues --    8.32298   8.33081  15.53135  15.78142
          Condensed to atoms (all electrons):
              1          2          3          4          5          6
     1  O    7.945176   0.238273   0.199405  -0.041989   0.002330   0.000161
     2  H    0.238273   0.556026   0.017537   0.004771  -0.003318  -0.002592
     3  H    0.199405   0.017537   0.634112  -0.000146  -0.022255   0.002182
     4  O   -0.041989   0.004771  -0.000146   7.927063   0.215949   0.248811
     5  H    0.002330  -0.003318  -0.022255   0.215949   0.649108   0.007340
     6  H    0.000161  -0.002592   0.002182   0.248811   0.007340   0.555599
 Mulliken atomic charges:
              1
     1  O   -0.343356
     2  H    0.189304
     3  H    0.169165
     4  O   -0.354459
     5  H    0.150847
     6  H    0.188499
 Sum of Mulliken atomic charges =   0.00000
 Mulliken charges with hydrogens summed into heavy atoms:
              1
     1  O    0.015114
     4  O   -0.015114
 Sum of Mulliken charges with hydrogens summed into heavy atoms =   0.00000
 Electronic spatial extent (au):  <R**2>=            151.5222
 Charge=              0.0000 electrons
 Dipole moment (field-independent basis, Debye):
    X=              0.2732    Y=             -0.0060    Z=              1.1645  Tot=              1.1961
 Quadrupole moment (field-independent basis, Debye-Ang):
   XX=            -19.3768   YY=            -10.8221   ZZ=            -13.0402
   XY=              3.7787   XZ=              0.3547   YZ=             -0.0289
 Traceless Quadrupole moment (field-independent basis, Debye-Ang):
   XX=             -4.9638   YY=              3.5909   ZZ=              1.3729
   XY=              3.7787   XZ=              0.3547   YZ=             -0.0289
 Octapole moment (field-independent basis, Debye-Ang**2):
  XXX=              0.1540  YYY=              0.0218  ZZZ=              0.8984  XYY=              0.1083
  XXY=             -0.2775  XXZ=             -2.1090  XZZ=              0.4625  YZZ=             -0.0992
  YYZ=             -0.4860  XYZ=             -2.0995
 Hexadecapole moment (field-independent basis, Debye-Ang**3):
 XXXX=           -163.3040 YYYY=            -13.7546 ZZZZ=            -15.3353 XXXY=              8.2396
 XXXZ=              0.5982 YYYX=              4.4625 YYYZ=              0.0162 ZZZX=              0.3355
 ZZZY=             -0.0868 XXYY=            -22.8406 XXZZ=            -27.0474 YYZZ=             -5.0606
 XXYZ=              0.0164 YYXZ=              0.1119 ZZXY=              0.5162
 N-N= 3.972120216466D+01 E-N=-4.406180429664D+02  KE= 1.521669213536D+02
 1\1\GINC-BRAHMA\SP\RB3LYP\Aug-CC-pVTZ\H4O2\VISHAL\12-Jun-2019\0\\#n B3
 LYP/aug-cc-pVTZ SP\\water_2\\0,1\O,0,0.,0.,0.\H,0,0.95783,0.,0.\H,0,-0
 .23982,0.92733,0.\O,0,0.42879,1.76458,-1.86959\H,0,0.43189,1.73756,-0.
 91214\H,0,-0.46104,1.50773,-2.11388\\Version=EM64L-G09RevB.01\State=1-
 A\HF=-152.9105575\RMSD=3.918e-09\Dipole=-0.0903018,0.2669758,0.3768684
 \Quadrupole=2.0007845,-1.5630022,-0.4377823,-2.1043917,2.5704625,2.121
 8269\PG=C01 [X(H4O2)]\\@


 We're simply so accustomed to the marvels of everyday thought
 that we never wonder about it.
 -- Marvin Minsky in "Why people think computers are smart"
 Job cpu time:  0 days  0 hours  0 minutes 39.3 seconds.
 File lengths (MBytes):  RWF=     16 Int=      0 D2E=      0 Chk=      2 Scr=      1
 Normal termination of Gaussian 09 at Wed Jun 12 14:21:36 2019.
Gaussian '09 finished on brahma at Wed Jun 12 14:21:36 IST 2019.
